314
 energy: -518.095670885820 gnorm: 0.000822926509 xtb: 6.7.1 (edcfbbe)
N           -8.39375325927818       17.64932180264595       12.87832033489919
C           -9.80897534863371       17.34372298995924       12.69481985334856
C           -9.96147305958163       15.92721628646052       12.14520698608914
O           -9.49423959618282       14.96738990762099       12.74283563084816
N          -10.60646146475318       15.80558340983942       10.98113101793547
C          -11.07275001334918       14.52601769171323       10.46248734030956
C          -10.08403103591613       13.38413979354346       10.69459778974532
O          -10.46992585460607       12.35992747001515       11.23792736435782
C          -11.47094745738437       14.68210426342440        8.98208319954061
C          -12.05832538596752       13.38334868831617        8.41796159328343
C          -10.31778452885082       15.15002743517562        8.09434918074889
C          -13.40983456782127       13.01120007127121        9.01479188543124
N           -8.83264891066354       13.51044990223659       10.23773902397408
C           -7.93199860561836       12.36835803356035       10.25481149995036
C           -7.65106020043591       11.91562091759718       11.69066716176170
O           -7.50227152375964       10.74604633561843       12.00175390754072
C           -6.60050652719963       12.67767995841574        9.54524483563773
C           -5.75729812058243       11.40650894471233        9.46519199035811
C           -6.83771958593426       13.21718529082027        8.13448103313703
N           -7.52679962446321       12.92657126018898       12.56004492189807
C           -7.25676754109524       12.69751261554537       13.96295489861144
C           -8.41207619245228       11.90794376554875       14.59111994177770
O           -8.21510647456332       10.94208451427136       15.31116936870763
C           -7.03885150464002       14.03535215101122       14.66849185674219
C           -5.74461508324907       14.71855923996755       14.20316323630128
C           -5.68254275394584       14.89863305128159       12.69771031615698
O           -6.61103295048019       15.70314256910047       12.15608655332009
O           -4.86728338592739       14.37006985932415       11.99628765100250
N           -9.62885924429756       12.35218870977140       14.26393371469804
C          -10.83403978201861       11.62907423893421       14.63238371199152
C          -10.72207254285368       10.17865330523247       14.14170769051518
O          -10.87404195899435        9.22982430366224       14.89784123560674
C          -12.04916438053358       12.32460286800464       14.02416831301794
C          -13.35261210328049       11.59724116736481       14.36240371274839
C          -14.40728071386395       11.85463723719083       13.30679941815796
O          -14.46247364229875       12.90396271084982       12.66998200384891
N          -15.27120652373563       10.85506802471519       13.12536353565698
N          -10.42994985509163       10.02842299317810       12.84954081069406
C          -10.30480286939320        8.71037741655526       12.26457583872276
C           -9.44620912706704        7.77389922114671       13.13880220918588
O           -9.75348016567778        6.60682389961674       13.28859251937490
C           -9.66924146272386        8.78493277571501       10.88723711448066
S          -10.65559968685337        9.77353996186964        9.69505413976509
N           -8.35112472381811        8.34268702700584       13.65376671367069
C           -7.33815721745549        7.59295179451766       14.36332010492302
C           -7.56515655060861        7.46693045808599       15.88494309220752
O           -6.71227311159756        6.94358561685563       16.58390433628408
C           -5.98364635222769        8.25737923406572       14.10507043076494
S           -4.58389888768761        7.13272630649367       14.41078498827318
N           -8.71837055354598        7.94567276315344       16.35854730857653
C           -9.03243701390837        7.93204962557138       17.77197418004042
C          -10.43136027095586        7.36792852708323       18.05406284993787
O          -10.61590136063696        6.43920741490142       18.81087414804621
C           -8.92575805142588        9.36279599037180       18.37326452788117
O           -9.67674314048322       10.28361179354471       17.61846601388504
C           -7.46594715154512        9.79411674533976       18.47533854262268
N          -11.41541943750802        8.01843317409498       17.40349488798280
C          -12.81349493468288        7.71306404101627       17.56251293632095
C          -13.44109367396563        7.08437950534066       16.30452956810675
O          -14.65139185722169        6.96152953586291       16.21376994439103
C          -13.59949964575063        9.00023070395981       17.89712796980048
O          -14.93734845808345        8.75674144057163       18.20749107358397
N          -12.54459527349739        6.67901167691350       15.39495801425542
C          -12.79925907208745        6.31457324338741       14.01905303757864
C          -13.49626721414614        7.46767012109768       13.30699146931630
O          -13.85558682780055        8.49199549401392       13.86159980898284
C          -13.54099739322354        4.96931239728823       13.81652105011202
C          -15.05730095833698        5.05166947001919       14.03824343106996
C          -12.89652430158671        3.90590482537836       14.70137297132456
C          -15.80589726721678        4.03041403538048       13.18939000054046
N          -13.61758698540307        7.30805115369097       11.97220319433478
C          -14.38459624359669        8.21348186275252       11.15448086833958
C          -15.06286470419037        7.38700617360861       10.06573934159344
O          -14.79864555584004        6.21469866278380        9.88629943870789
C          -13.52288303781254        9.32663666012236       10.55309544348976
S          -12.29510602364713        8.63547332526947        9.36323390570201
N          -15.99201036922312        8.05605689998048        9.36070462601055
C          -16.70357368517474        7.37396356715208        8.30831800601640
C          -16.15181477076862        7.74339367239752        6.92933233148775
O          -15.75753565422758        8.86463195693773        6.66114513346350
C          -18.20978862270444        7.70500183526566        8.34851319705314
O          -18.49835879781589        9.00913307877788        7.91354310108278
N          -16.22074170076059        6.76694784096288        6.01255165579596
C          -15.81209234918237        7.01705769258456        4.63998685594283
C          -16.61277876202432        8.20412334486833        4.09367875791436
O          -16.12058710473422        9.08486919997144        3.41297885095237
C          -16.05456263013483        5.79363709109621        3.75601160472110
C          -15.25530573574388        4.54355779985768        4.15315606010992
C          -15.63115355906745        3.40087923572524        3.21138571479206
C          -13.74959996084966        4.78963899760130        4.11125524404384
N          -17.90900225227455        8.19119600236139        4.43750768700646
C          -18.82305684547399        9.21161370298797        3.96447032562601
C          -18.25873102004149       10.59694576983700        4.29518457625055
O          -18.21603437397417       11.48806157009655        3.45671920186790
C          -20.20645417386329        8.99736573951587        4.59143835646123
C          -20.71231425842026        7.64120321067111        4.18242789966081
C          -21.13839121260191        7.41991882660072        2.87803078304819
C          -20.68181265569400        6.56779101524248        5.06430024353358
C          -21.52186941180728        6.15942241056092        2.46477545325488
C          -21.06069788562839        5.30167020601339        4.66142100169300
C          -21.47917580977825        5.08789463430237        3.35165508076656
O          -21.82908000540644        3.82925247090343        2.98806911985379
N          -17.83992977285211       10.72562617173454        5.55065190548292
C          -17.27890552075482       11.93867402305768        6.11341883052004
C          -15.97378020452862       12.36077899315991        5.41542499478665
O          -15.72718648252979       13.53336634819062        5.18997352844574
C          -16.90106040635169       11.66737508411516        7.52742333967663
C          -17.14318921693370       12.44891393549543        8.57186878092468
C          -16.60609315177799       12.08406681899294        9.90511711903903
O          -16.40567423014420       10.90861200760732       10.22902636525458
N          -16.35622020105244       13.11553402479556       10.71183279195989
N          -15.12580602487880       11.37896419448222        5.10929526340397
C          -13.88568594356663       11.70856812941648        4.43156151077383
C          -14.17333627348220       12.59873769279192        3.21466583142645
O          -13.45829026184061       13.54472140504264        2.92434695228665
C          -13.15032773235847       10.44956729975153        3.97745525813732
C          -12.60763627714661        9.58419230913051        5.12333330235909
C          -11.94461157838865        8.34128509852343        4.53095217930583
C          -11.60033263865249       10.33752473454876        5.98724342812369
N          -15.24586759309151       12.23617202008057        2.50193743273482
C          -15.63992128090049       12.91636571616043        1.28818938307307
C          -15.82466998859426       14.42437278391936        1.48223913314394
O          -15.70857548501741       15.18915582050791        0.53532943519998
C          -16.98256326181648       12.39295411649995        0.77318336014327
C          -16.96709353007711       10.89700562085132        0.45341449880276
C          -18.36551416645421       10.38166333349245        0.15424978741233
O          -19.26575730284237       10.58695846735995        1.11771546606614
O          -18.65785034004017        9.79854214533895       -0.85294925055718
N          -16.18435765140243       14.82316801479585        2.70635218042278
C          -16.37594619574573       16.21763840219625        3.02402913057614
C          -15.09923839684257       17.07668813655240        2.88807540325297
O          -15.16360452690124       18.28121017602757        3.03986462500737
C          -16.91996295449660       16.35965474623961        4.44742944200174
C          -18.31834871244341       15.78497261095700        4.60747504730567
O          -18.58528398181098       14.86348275667116        5.34966911536128
N          -19.25868422011384       16.40190101641107        3.86177365365961
N          -13.98363467279779       16.41221785221332        2.56537647712650
C          -12.73015159098183       17.07717303897797        2.33360115042938
C          -12.23897007391094       16.94126341931517        0.88864057035784
O          -11.20480363101845       17.48152834295258        0.52702986984192
C          -11.66289567206949       16.52465532718893        3.29762288843136
C          -12.08114675013015       16.82803135519079        4.70456284069913
C          -11.70107615030840       18.01293736398820        5.31890066014275
C          -12.94247796517618       15.97190457839975        5.38223271109991
C          -12.14969487919903       18.32986249643915        6.58789540475806
C          -13.40747937193138       16.28471757590541        6.64451907206428
C          -13.00319654462592       17.46433995838510        7.25713674519727
O          -13.43557998766767       17.72688788251024        8.53532670454197
N          -12.98792903495878       16.18015246475601        0.08203147853222
C          -12.64722457721765       16.06487000103309       -1.32155171352449
C          -12.36124926086760       17.47824357100485       -1.85723749800403
O          -13.09545629692203       18.41450221285835       -1.62040322346077
C          -13.79763292879701       15.44927067867246       -2.09835600831885
S          -13.86814885362672       13.64295449241866       -1.78679536254895
N          -11.25729309245193       17.58775728274339       -2.61802611334493
C          -10.79066879159223       18.88907330467667       -3.01776725529342
C           -9.73393302932842       18.74952751561416       -4.12370826941928
O           -9.41179356722928       17.67195988312471       -4.54797973581573
C          -10.21155896020258       19.66017309489442       -1.80310760422363
C          -10.57412869575739       21.11798917727477       -1.95380693530256
O          -10.21187665718464       21.76247215406369       -2.93149437526550
N          -11.32615397773957       21.63840090874330       -0.97979597656842
O           -9.20775584466219       19.88148751090683       -4.53764091731280
H           -8.27370442146976       18.40081164574900       13.54765588028754
H           -7.98055902494321       17.95001528786592       12.00090163314757
H          -10.28790618436385       17.34071215185818       13.67839206433059
H          -10.33740814574999       18.06406502113873       12.05503937420264
H          -11.04853477856543       16.61269317748475       10.56449798779228
H          -11.97274056728448       14.23698526028999       11.02513602777663
H          -12.25404429539237       15.44735353379714        8.95881319243121
H          -11.35423509532745       12.56314436696964        8.57435717364420
H          -12.17842453082407       13.52604086299205        7.34230517019274
H           -9.64336219781749       14.32756536304309        7.87388068222939
H           -9.75893550363077       15.96371994544630        8.55336277989544
H          -10.71760130570910       15.51402092077308        7.15099556208259
H          -13.32919346563166       12.77371943843188       10.07192341543997
H          -13.81227541198075       12.14074706938065        8.50159869830392
H          -14.11562809504770       13.82984530537039        8.89490010187386
H           -8.49447874483045       14.38273205157441        9.86744902128524
H           -8.43439849006438       11.53545218573528        9.74295919993687
H           -6.05446097591560       13.42262706774163       10.13273705823565
H           -6.25273632700328       10.66148935322101        8.84580930890742
H           -5.59132864619918       10.98075624683394       10.44975885083784
H           -4.78889730521919       11.63313822300462        9.02880604703629
H           -7.50456540671564       12.55879173054651        7.58094684452834
H           -5.88992223369967       13.26449217581617        7.60532790441549
H           -7.25684828908788       14.22057860115213        8.13788416812582
H           -7.89705024111090       13.83156051085053       12.30283808762301
H           -6.36100957965974       12.06913185005925       14.04371539760170
H           -6.97590241061788       13.86166592864285       15.74353275365545
H           -7.90442219074747       14.67334841330243       14.47644187390600
H           -5.66151211280972       15.69816895144795       14.67998416772763
H           -4.88261530499460       14.11689943106759       14.49315916288423
H           -7.21018006863186       16.15041512078657       12.79496040796974
H           -9.72800136544445       13.14849588980088       13.64727290958361
H          -10.91766984946112       11.58732927907686       15.72676377597914
H          -12.08968824209984       13.35542052272079       14.38073248800733
H          -11.92588416124893       12.35489978618159       12.93955382599326
H          -13.18855018474704       10.52186862565465       14.43159412555825
H          -13.74268995399126       11.93407617965097       15.32516069948767
H          -15.92952258252702       10.89758272518003       12.35624120070612
H          -15.09350612155049        9.96752860514698       13.58159785062745
H          -10.33932325378596       10.83098756018487       12.23239800522889
H          -11.29420720023354        8.23708045201277       12.19242351832124
H           -8.70435129537882        9.28966274054319       10.94189575041865
H           -9.54641790024172        7.78695937323072       10.46976744610243
H           -8.12970670436198        9.30554218790434       13.43169186560075
H           -7.33854963035227        6.56782560173488       13.96625689859955
H           -5.87090079820476        9.13948022339149       14.73792043501090
H           -5.90742986740976        8.55528969385305       13.05915230825997
H           -9.37689050360566        8.39744545445382       15.73533499128304
H           -8.30308044967504        7.27881247401643       18.26064625947814
H           -9.38352740189648        9.34429341205826       19.36919693340566
H           -9.17030617430546       10.46241094743293       16.80331034307249
H           -7.02683222547619        9.83308356446501       17.48046294737965
H           -6.90147617737125        9.09299759427186       19.08200514505699
H           -7.40439229231029       10.78347097433534       18.92323674393664
H          -11.18828518402128        8.84421417850137       16.86146545478431
H          -12.91262762810904        6.99695879288374       18.38793417144465
H          -13.51544356126217        9.68022797511682       17.03178872406382
H          -13.14743613908567        9.48711958592550       18.76642830071772
H          -15.26403001472608        8.12906141500648       17.53412514226100
H          -11.58273431934242        6.91062625936388       15.59955798776267
H          -11.80643411155536        6.19870403659014       13.56632819405217
H          -13.37356026798857        4.68393351464808       12.77062102551021
H          -15.41612004569643        6.05079451986401       13.78515435165966
H          -15.28202339945335        4.89700177478907       15.09248862110617
H          -13.03720229119166        4.14971370394147       15.75107094722419
H          -11.82945974917665        3.84115134334265       14.50197365921471
H          -13.34473471202695        2.93460887439826       14.50988025472466
H          -15.64347360550090        4.22097915490709       12.12932556583198
H          -16.87363668921876        4.08454634894945       13.38844713244600
H          -15.47079748213801        3.02042202313050       13.41177205359120
H          -13.42830314289382        6.41352863684902       11.53579269564711
H          -15.15824711849220        8.68692210042416       11.77129232657232
H          -14.14615651892149       10.04405088034208       10.02187458764556
H          -12.97380417962587        9.84183538208004       11.33886378804653
H          -16.14603416587700        9.04682509903268        9.52797570652896
H          -16.56324355476017        6.30267765081096        8.49157130140606
H          -18.74362643686422        7.03413979882401        7.67005858272068
H          -18.57982054070634        7.53864138585491        9.36676913398769
H          -18.15627991785984        9.64260078532387        8.55995664066671
H          -16.44027258487978        5.82023865695709        6.27832883995208
H          -14.75475903222652        7.30390572330753        4.61603427534330
H          -17.12199445273607        5.55334524779430        3.76672814374229
H          -15.79004577677217        6.06777499569102        2.73261030030522
H          -15.52706896324273        4.24467576600825        5.17260130736569
H          -15.35047177398659        3.64572103971834        2.18986772980829
H          -16.70190880924600        3.21091439590300        3.23731352201751
H          -15.11544518766381        2.48846205270656        3.49850993006452
H          -13.45525635063215        5.18816907711785        3.14317868051466
H          -13.21734778337358        3.85537760626836        4.26962492505002
H          -13.43787976661426        5.48379700985069        4.88687745741572
H          -18.31076071993530        7.39907872358447        4.91643494781733
H          -18.91355980966945        9.13516120180383        2.87384333831822
H          -20.13589290748704        9.07498190648166        5.67811373635222
H          -20.87302490436533        9.77937902765821        4.22621727760034
H          -21.16896147499698        8.24117403541121        2.17781876905994
H          -20.38243837656461        6.72710170754192        6.09181478093178
H          -21.85347685032051        6.00231848081716        1.44771789636302
H          -21.04437922038623        4.46699337367670        5.34397962907897
H          -22.11893194925252        3.81770477398690        2.06762220411851
H          -17.93747466482438        9.94396367960289        6.18916435600523
H          -17.97335929785718       12.78288779548240        6.01068499415379
H          -16.32323446328553       10.76053349156460        7.66225647487772
H          -17.66958583578051       13.38605165175141        8.47269284838549
H          -16.49821955027211       14.04946680294101       10.36668747347930
H          -15.74437361190886       13.01400532940465       11.53849298296513
H          -15.31805640173791       10.41466384010719        5.34665775747647
H          -13.25139953363200       12.30235357757511        5.10194320103468
H          -12.31776882021874       10.75671986018875        3.34079550181881
H          -13.83951743538866        9.85558359529682        3.37344403533249
H          -13.43980613368038        9.26894084527303        5.76138469370271
H          -11.05183877067457        8.62112808815078        3.97633293095601
H          -12.61609372665661        7.82717709818929        3.84670645214203
H          -11.65359621814623        7.65217272008866        5.32028545998118
H          -10.81930122016882       10.77436458787785        5.36881038640331
H          -11.13764608985933        9.65706242267002        6.69711140498617
H          -12.07967224636435       11.12825848038982        6.55599706968028
H          -15.80680380292229       11.45478122906272        2.81097445669597
H          -14.86058594885140       12.78572465876176        0.52423338045996
H          -17.73001619018483       12.61881259865833        1.53528141320259
H          -17.23806814210038       12.95195520413179       -0.12880023750182
H          -16.33093828214389       10.69498756269313       -0.40843510204296
H          -16.58942755250447       10.32163236786430        1.30366171049607
H          -18.88376782889949       11.04077772987050        1.91289113731258
H          -16.16474686874804       14.19041165271151        3.49938998994966
H          -17.07436406918153       16.64302439785666        2.28937476177972
H          -16.93069557047068       17.42089500429534        4.70350419717192
H          -16.25518093773588       15.83174307843045        5.13188034517057
H          -20.21057497489096       16.07813111554244        3.90125671037143
H          -19.03977331576111       17.18618055882667        3.27410811266351
H          -13.93844319565736       15.39811558345462        2.60766247808549
H          -12.88713349682128       18.14609052312489        2.52647299770190
H          -10.70612253650544       16.98735039004566        3.05545415181553
H          -11.59401605446163       15.44658002647603        3.14260701942273
H          -11.04822376960222       18.69859965092861        4.79959427145751
H          -13.26193849721185       15.05325760091742        4.91515480440835
H          -11.84771352504705       19.25850729270285        7.05553663091643
H          -14.09284765407585       15.62837624246669        7.15632354955724
H          -13.26558652904097       18.65404104567243        8.73819511802729
H          -13.92069039899431       15.88709330219005        0.35741706142071
H          -11.74358017613324       15.44840974666060       -1.42297477644365
H          -14.74117063964851       15.88499360298295       -1.77413929931845
H          -13.65531119176454       15.59645360711951       -3.16953755637404
H          -10.62974351289281       16.81664353678225       -2.79493715498883
H          -11.65021200272804       19.44481613820104       -3.41842249405137
H          -10.61780916156813       19.22821318640288       -0.88871199801756
H           -9.12411162429753       19.55761134790188       -1.77909681993772
H          -11.66472699912072       22.58330465422259       -1.07282366665024
H          -11.72788942855236       21.04746535460091       -0.27194085443347
H           -9.54323603989631       20.68656693280230       -4.04018086665639
H           -5.02990717109539        6.76212294167493       15.61016501520078
H          -15.10902389292553       13.47998196002324       -2.23869463013445
